
#(C) 2025 by FIZ Karlsruhe - Leibniz Institute for Information Infrastructure.  All rights reserved.
data_15728-ICSD
_database_code_ICSD 15728
_audit_creation_date 1980-01-01
_audit_update_record 2012-02-01
_chemical_name_common 'Barium dialuminium oxide'
_chemical_formula_structural 'Ba (Al2 O4)'
_chemical_formula_sum 'Al2 Ba1 O4'
_chemical_name_structure_type BaAl2O4
_exptl_crystal_density_diffrn 4.09
_citation_title 'The crystal structure of Ba Al2 O4'
loop_
_citation_id
_citation_journal_full
_citation_year
_citation_journal_volume
_citation_page_first
_citation_page_last
_citation_journal_id_ASTM
primary 'Bulletin de la Societe Francaise de Mineralogie et de Cristallographie'
1968 91 85 87 BUFCAE
loop_
_citation_author_citation_id
_citation_author_name
primary 'Perrotta, A.J.'
primary 'Smith, J.V.'
_cell_length_a 5.218(1)
_cell_length_b 5.218(1)
_cell_length_c 8.781(3)
_cell_angle_alpha 90.
_cell_angle_beta 90.
_cell_angle_gamma 120.
_cell_volume 207.05
_cell_formula_units_Z 2
_space_group_name_H-M_alt 'P 63 2 2'
_space_group_IT_number 182
loop_
_space_group_symop_id
_space_group_symop_operation_xyz
1 'x, x-y, -z+1/2'
2 '-x+y, y, -z+1/2'
3 '-y, -x, -z+1/2'
4 'x-y, x, z+1/2'
5 'y, -x+y, z+1/2'
6 '-x, -y, z+1/2'
7 '-x, -x+y, -z'
8 'x-y, -y, -z'
9 'y, x, -z'
10 '-x+y, -x, z'
11 '-y, x-y, z'
12 'x, y, z'
loop_
_atom_type_symbol
_atom_type_oxidation_number
Ba2+ 2
Al3+ 3
O2- -2
loop_
_atom_site_label
_atom_site_type_symbol
_atom_site_symmetry_multiplicity
_atom_site_Wyckoff_symbol
_atom_site_fract_x
_atom_site_fract_y
_atom_site_fract_z
_atom_site_B_iso_or_equiv
_atom_site_occupancy
Ba1 Ba2+ 2 b 0 0 0.25 0.74 1.
Al1 Al3+ 4 f 0.3333 0.6667 0.054(5) 0.31 1.
O1 O2- 6 h 0.371(10) 0.742(20) 0.25 0.59 0.333
O2 O2- 6 g 0.36(1) 0 0 0.72 1.
#End of TTdata_15728-ICSD